LAMMPS data file via write_data, version 29 Sep 2021, timestep = 4514

1553 atoms
5 atom types
1020 bonds
1 bond types
510 angles
1 angle types

-13.882014199477121 11.09601019947712 xlo xhi
-4.652014199477113 20.326010199477118 ylo yhi
-2.045014199477132 22.93301019947712 zlo zhi

Masses

1 35.453
2 1.008
3 22.9898
4 15.999
5 1e+20

# Pair Coeffs # lj/cut/coul/long
# 
# 1 0.0128 4.83
# 2 0 0
# 3 0.3524 2.16
# 4 0.1553 3.166
# 5 0 0
# 
# Bond Coeffs # harmonic
# 
# 1 10000 1
# 
# Angle Coeffs # harmonic
# 
# 1 1000 109.47

Atoms # full

238 80 4 -0.8476 -10.849759281819646 -1.0863417265358626 1.2149923810903387 3 0 1
239 80 2 0.4238 -11.35189054587736 -1.940624880652258 1.3493998916291692 3 0 1
240 80 2 0.4238 -9.86745462201524 -1.2736348495743353 1.2144833875996452 3 0 1
544 182 4 -0.8476 -11.337552629912922 0.8701104401931453 3.3907591467949043 1 -1 1
545 182 2 0.4238 -11.365585286934733 0.03895296062546667 2.8354290102848605 1 -1 1
557 186 2 0.4238 -7.821525929077077 -0.9636736652680147 -1.5830804841288422 1 -1 1
655 219 4 -0.8476 -12.50117688248621 0.09742541692178355 -0.6814119141687653 2 0 0
656 219 2 0.4238 -11.901399262856637 0.037249219527705664 0.11648895367449248 2 0 0
657 219 2 0.4238 -12.476946338370315 -0.7675736348916423 -1.1826001981381762 2 0 0
1204 402 4 -0.8476 -8.197714846801297 -1.4552707036918624 1.6298843158896872 1 0 0
1206 402 2 0.4238 -8.559902084655764 -1.9464201381392099 2.4220918942866603 1 0 0
1446 482 2 0.4238 -11.627823081458287 -4.051942126060043 2.117443003739 1 0 1
1444 482 4 -0.8476 -12.311778943599679 -3.3991883236080658 1.7916869598601766 1 0 1
1445 482 2 0.4238 -12.854292647597683 -3.071082974511854 2.5650082473201063 1 0 1
114 38 2 0.4238 10.623268249599228 -1.501588376745716 22.581996711833522 0 0 -1
112 38 4 -0.8476 -13.810530883930685 -2.338177777729024 22.519248633637694 1 0 -1
671 224 2 0.4238 -9.577644244072971 -3.478937833494813 3.5630727715622252 0 0 1
659 220 2 0.4238 -7.92644040338441 0.4144991053062849 2.7677317699480977 0 1 0
297 99 2 0.4238 -10.962729058803252 -3.5289185350764445 -1.4012598828097886 2 2 0
629 210 2 0.4238 -13.481467200402031 -3.0096862110204614 4.726598235132594 1 1 0
658 220 4 -0.8476 -7.56535758918996 1.334323130052045 2.614293657608453 0 1 0
295 99 4 -0.8476 -11.059739371992194 -4.512992887707709 -1.2523082764992812 2 2 0
670 224 4 -0.8476 -9.084307567050056 -2.632310375203334 3.762675052550623 0 0 1
556 186 4 -0.8476 -6.953048542726915 -1.4278807120476513 -1.7570311874596103 1 -1 1
1205 402 2 0.4238 -7.318503184014699 -1.8515600073351226 1.365419147028672 1 0 0
558 186 2 0.4238 -6.19890590012764 -0.8559079505670643 -1.434360736133806 1 -1 1
64 22 4 -0.8476 -4.921956819030441 0.03362117437746471 -0.7646646995370034 0 1 -1
65 22 2 0.4238 -3.970577372212781 0.25245616071509214 -0.9814358309421362 0 1 -1
1168 390 4 -0.8476 -5.273157552778703 -2.396886839586236 1.2429068575749156 0 1 2
1169 390 2 0.4238 -4.95671258402719 -1.8022020277007462 0.5038445353053278 0 1 2
1170 390 2 0.4238 -4.704432383504181 -2.253447193523675 2.052831165548474 0 1 2
1020 340 2 0.4238 -3.9180554392377345 19.715875412986144 0.7192242741300918 1 0 -1
1018 340 4 -0.8476 -4.754399668260396 19.864705266571608 1.2468398067540496 1 0 -1
1019 340 2 0.4238 -5.143217747528555 -4.222696658526935 1.0110172625660736 1 1 -1
783 261 2 0.4238 -4.509944934019312 -4.413262643474226 3.094650125215196 2 -1 0
184 62 4 -0.8476 -4.408377971887292 -1.255070342285372 3.671957209198674 0 1 -2
185 62 2 0.4238 -3.648268438381691 -0.6251081792102953 3.512639636259052 0 1 -2
781 261 4 -0.8476 -4.458890874001387 -4.0573540661215795 4.027775631343916 2 -1 0
809 270 2 0.4238 -1.34777411760955 -1.2063467786410405 -0.9479235288046282 0 1 -1
1259 420 2 0.4238 -7.008169748050015 19.889074122009404 4.49686169933246 1 0 0
808 270 4 -0.8476 -0.5598377386534594 -1.3691894186203568 -0.3540892789041759 0 1 -1
810 270 2 0.4238 -0.1383994776522335 -2.2442930651917012 -0.5919634974610778 0 1 -1
91 31 4 -0.8476 -2.2718278990794634 0.789297964951176 -1.6347817974983536 1 0 1
847 283 4 -0.8476 -2.460320133689455 0.856074741649113 3.217293676460453 2 -1 1
849 283 2 0.4238 -1.9739540086972174 1.137854880393356 2.3902216559595333 2 -1 1
1527 509 2 0.4238 -2.7624455814650744 -4.413606058032482 -0.3358099401265223 2 1 2
1426 476 4 -0.8476 -3.5232035725420854 -3.019428233320386 -1.5052142807001716 -1 0 2
371 124 2 0.4238 -7.129337186724259 -2.9669713369618345 -1.0585690780879675 1 0 -1
370 124 4 -0.8476 -7.016891426202302 -3.915644320277631 -0.7629732486206356 1 0 -1
1434 478 2 0.4238 0.20738040543569522 -4.365381157720876 0.3044523492272401 1 -3 2
92 31 2 0.4238 -2.8278717190888654 1.283996307084783 22.675343680339438 1 0 0
1433 478 2 0.4238 0.5024695935406666 -3.6884495912287645 1.7609251262782062 1 -3 2
104 35 2 0.4238 -1.055271360320246 -0.23765974175129764 2.6616909847021746 0 0 -1
103 35 4 -0.8476 -0.7733693592846419 -1.1759428159790897 2.4613003635087862 0 0 -1
105 35 2 0.4238 -1.0705893861097484 -1.4235331235223374 1.539150800668336 0 0 -1
829 277 4 -0.8476 3.7561367843390943 -2.625232979855591 0.09500694423338205 -1 1 1
830 277 2 0.4238 2.8140937437105724 -2.6028714084236473 0.42975399474420495 -1 1 1
868 290 4 -0.8476 1.8655795767046468 -0.006758133755056399 -0.0998769752058919 2 1 2
869 290 2 0.4238 2.401406584991455 -0.2803880479688365 0.6988823631910738 2 1 2
870 290 2 0.4238 1.0184931522153173 -0.5373212989327307 -0.1306740306947163 2 1 2
931 311 4 -0.8476 1.7612750837184006 -2.820699194837168 2.358561453048374 1 1 1
933 311 2 0.4238 1.4583740606707716 -1.8725654709579551 2.2621575966027967 1 1 1
1003 335 4 -0.8476 3.3995258693907293 0.1297872296135497 2.3576598844407752 0 0 1
1004 335 2 0.4238 4.032258686143586 -0.42957680114848035 2.893160838806761 0 0 1
1005 335 2 0.4238 3.9159471578312224 0.6887787434005709 1.7089397980872563 0 0 1
1081 361 4 -0.8476 5.057923539020396 -1.3683689852409284 3.8683222050867614 1 1 1
1083 361 2 0.4238 4.635394449306262 -2.188231407985907 4.254709206238611 1 1 1
1553 0 5 0 0.1120779352794053 -0.630547949414118 -0.8403015443649785 0 0 0
1078 360 4 -0.8476 1.4327983623713816 1.5731693038578196 3.4297600652334044 3 -1 -1
1079 360 2 0.4238 2.087849553694061 0.9147730296817679 3.059054736843934 3 -1 -1
256 86 4 -0.8476 0.9425423418948544 -3.794357614522227 -1.1832322286619608 2 1 0
257 86 2 0.4238 1.865236467280377 -3.5195971339572925 -1.453680596968881 2 1 0
596 199 2 0.4238 3.6792643273832537 -0.8469203682933791 -1.3328541579838429 -1 1 0
1344 448 2 0.4238 1.237870170751896 1.6971021527229555 -0.7321913202092639 1 0 1
932 311 2 0.4238 2.3132552774073423 -2.9116251644066233 3.187446897746975 1 1 1
831 277 2 0.4238 4.150954811655895 -3.527051518380995 0.27062993352805875 -1 1 1
1082 361 2 0.4238 5.8635059628100485 -1.6279845722306223 3.3357465429623976 1 1 1
46 16 4 -0.8476 6.976021507062864 0.8433231858800041 -1.0080919364827279 0 1 1
47 16 2 0.4238 7.315765705169411 1.3304047422892606 -0.20352644385867621 0 1 1
48 16 2 0.4238 6.265928067309902 1.3891090109493702 -1.4529349658471775 0 1 1
76 26 4 -0.8476 7.408442928737437 -2.5176393072937597 2.780173951314521 -1 -1 0
78 26 2 0.4238 7.8161253254574055 -2.031387967087816 2.0072864193439517 -1 -1 0
400 134 4 -0.8476 10.696416038839402 -3.540798591090769 -0.03676820547974129 1 -1 0
401 134 2 0.4238 10.909655917027042 -3.1936376341724984 -0.9500086998432477 1 -1 0
402 134 2 0.4238 -13.511581383413862 -3.362449300199958 0.5758083447985551 2 -1 0
628 210 4 -0.8476 11.038842093389798 -2.6618460923270755 3.9083653830654 0 1 0
630 210 2 0.4238 10.29301839202185 -2.052401975812271 4.177299899922677 0 1 0
455 152 2 0.4238 8.913749216375308 -3.890252178414718 -0.7609152910628394 1 0 1
641 214 2 0.4238 10.77798821520176 0.5632162526703945 -1.2777510179351517 -1 0 1
640 214 4 -0.8476 9.945880497951508 0.6593091062311641 -1.8239779534820535 -1 0 1
642 214 2 0.4238 9.158283909816447 0.7617521786810943 -1.2163617007622034 -1 0 1
958 320 4 -0.8476 6.4004638442210116 -1.9680723094407566 -0.2608389189358648 1 1 1
960 320 2 0.4238 6.573426098927921 -0.9892936058666604 -0.3707335095660417 1 1 1
454 152 4 -0.8476 7.978262825674601 -4.228263858781534 -0.8639371637150405 1 0 1
456 152 2 0.4238 7.335062652071834 -3.473459400926685 -0.7352363705060334 1 0 1
1012 338 4 -0.8476 8.675731114301989 -1.4159172324876865 4.907374940885727 0 1 -2
1013 338 2 0.4238 8.214578455177275 -1.9324204520310178 4.185874660691833 0 1 -2
77 26 2 0.4238 7.408386104664694 -3.5000317108378116 2.5933420329057766 -1 -1 0
959 320 2 0.4238 5.4265263982506795 -2.1173290933304223 -0.09004771175928919 1 1 1
546 182 2 0.4238 -11.088452428770857 1.6481030961795708 2.813977892915506 1 -1 1
842 281 2 0.4238 -7.628773700287381 1.9515906791801807 0.863116539721036 3 0 0
841 281 4 -0.8476 -7.975073632186811 2.515841902091852 0.11365139634430856 3 0 0
684 228 2 0.4238 -12.44518853358285 1.570368362843781 -1.8929301410268893 1 1 0
682 228 4 -0.8476 -12.163882947152555 2.4713499636165204 22.7547921549783 1 1 -1
321 107 2 0.4238 -8.10536711508508 2.7741201695608853 3.293740789872729 1 0 1
353 118 2 0.4238 -12.04029264181095 5.391266997411651 4.247133097778016 2 0 1
683 228 2 0.4238 -12.133285299074515 3.112771022639028 -1.456653472987522 1 1 0
843 281 2 0.4238 -7.291257419958615 3.2039777568191834 -0.12897037621013738 3 0 0
1285 429 4 -0.8476 -10.576350157476277 2.69679978200517 1.1898259824853248 2 2 2
1286 429 2 0.4238 -10.624543960814822 3.6915464830568196 1.0995130997696452 2 2 2
1287 429 2 0.4238 -9.642525913805413 2.3902306582588015 1.0054682078484136 2 2 2
1372 458 4 -0.8476 -10.319118525057577 5.788873824881466 3.572173220542682 1 0 1
1373 458 2 0.4238 -10.354258660777422 5.841806733696823 2.574193489428298 1 0 1
1374 458 2 0.4238 -9.366682927395185 5.7196822669538605 3.8689547300816614 1 0 1
1495 499 4 -0.8476 -10.053528197437718 5.123188647768653 0.21014735664637574 1 2 2
1497 499 2 0.4238 -9.180880534405116 4.794285252235771 -0.1508357062623892 1 2 2
352 118 4 -0.8476 -12.614006467386316 5.3159976968938745 5.062723831195313 2 0 1
354 118 2 0.4238 -12.071031542351838 5.534599973810072 5.873521043496539 2 0 1
1045 349 4 -0.8476 -7.582055157383084 5.889997032345192 1.8174260366437276 0 1 1
1047 349 2 0.4238 -7.8642453111106585 5.014163892843801 2.208943988801425 0 1 1
1496 499 2 0.4238 -10.042003569268665 6.122285542789992 0.2510463240719046 1 2 2
1046 349 2 0.4238 -7.531146475786152 5.809181087199846 0.8219976491595815 0 1 1
769 257 4 -0.8476 -12.595928330410622 4.397854899705261 -0.3355918619022948 3 2 1
771 257 2 0.4238 -11.677937057753839 4.653423436477192 -0.032314955070233395 3 2 1
1271 424 2 0.4238 10.784968714955932 7.175082067657488 0.7303438659990691 -2 0 -1
319 107 4 -0.8476 -8.22581364309537 3.7212661596181182 3.5910743338059343 1 0 1
1270 424 4 -0.8476 -13.337573354906343 7.659709226554832 0.912790155160144 -1 0 -1
308 103 2 0.4238 -8.990543503711374 0.6285953284730645 -0.3936099242349329 1 1 2
1120 374 4 -0.8476 -7.750170630513471 5.17800577048405 -1.0265294315556295 1 1 1
660 220 2 0.4238 -6.565832005553526 1.3065545528281166 2.6276939482265824 0 1 0
93 31 2 0.4238 -1.4413583066661824 1.3113627693050618 -1.4404402891835175 1 0 1
409 137 4 -0.8476 -4.976081248962363 1.893132711027426 2.58224555658592 0 1 0
411 137 2 0.4238 -4.818970157433055 2.3586579218513437 1.7112676120812478 0 1 0
848 283 2 0.4238 -2.2352839806799283 1.4804045550447633 3.965338575310846 2 -1 1
410 137 2 0.4238 -4.141408546002519 1.4186722662802147 2.861903986412707 0 1 0
621 207 2 0.4238 -2.904468618580805 5.107040888550234 -0.5895093943571497 2 1 -1
634 212 4 -0.8476 -4.7479953585096695 7.150165648172523 1.533970282775131 1 0 2
635 212 2 0.4238 -5.028949533172773 6.1904526068733805 1.538018208294937 1 0 2
636 212 2 0.4238 -5.171930696629122 7.624829987633112 2.305315355952674 1 0 2
1163 388 2 0.4238 -1.4904577826452645 7.482435107496794 1.7425187550154688 3 0 2
1510 504 4 -0.8476 -2.478608717654457 4.213373501743101 2.278141485774967 -1 0 0
1511 504 2 0.4238 -2.1627060306564254 5.110605374875305 1.9696282001670837 -1 0 0
1512 504 2 0.4238 -3.370792809481387 4.01626911455217 1.8717457835039728 -1 0 0
1548 0 1 -1 -4.810524737643709 3.7188029560455083 0.24880024212682514 0 0 0
1122 374 2 0.4238 -6.7780572130150025 5.403243589064661 -0.9612330352012131 1 1 1
776 259 2 0.4238 -6.8869384863823235 6.822584418972413 3.007027400962013 1 2 1
619 207 4 -0.8476 -2.6487920671309295 5.875622253231737 -1.1759497821730547 2 1 -1
1162 388 4 -0.8476 -1.143403425277816 6.642694356422606 1.3249187897293833 3 0 2
129 43 2 0.4238 -5.460198223451202 3.462951361993292 4.307118903404688 -1 0 0
822 274 2 0.4238 -1.8746817803223765 3.560462392227863 3.935207365557771 1 0 2
599 200 2 0.4238 -5.474096885258289 2.9812580574831697 -1.5009621526891932 1 0 1
415 139 4 -0.8476 -5.03103323419106 6.164630850222009 22.494231244129136 0 -1 -1
417 139 2 0.4238 -4.225388932138219 6.1942974190958875 -1.8921367714798387 0 -1 0
620 207 2 0.4238 -1.9746906411395189 5.5714578838586 -1.8490556323899812 2 1 -1
1080 360 2 0.4238 0.5832390592063835 1.5301904059062956 2.9040206595012776 3 -1 -1
772 258 4 -0.8476 4.631722272455779 2.05803175750452 1.0584820147898322 0 0 2
1342 448 4 -0.8476 1.1264043915225055 2.687625934455424 -0.6519466944653096 1 0 1
363 121 2 0.4238 -0.2147952987691876 1.9926675352171888 0.6089820271006098 0 1 -2
361 121 4 -0.8476 -0.5645005275406803 1.9573649129541968 1.5451768648416941 0 1 -2
362 121 2 0.4238 -1.1332131668061824 2.761307067311212 1.7190850927356456 0 1 -2
13 5 4 -0.8476 1.1570709729424775 5.493292476346363 1.704534189417955 2 0 1
14 5 2 0.4238 0.2633210561595852 5.885378853590018 1.4866362303394982 2 0 1
15 5 2 0.4238 1.1009360045510865 4.996547271435054 2.570613427292091 2 0 1
514 172 4 -0.8476 3.1641669735201825 4.257565216811603 0.34612314190567367 1 1 0
515 172 2 0.4238 3.595867786386185 4.975964943505519 -0.19934728399052964 1 1 0
516 172 2 0.4238 2.523408439745572 4.670218044307847 0.9935394036530798 1 1 0
688 230 4 -0.8476 1.3937628222897218 6.746788133252177 -1.1597892566947514 0 2 1
689 230 2 0.4238 1.9631072654798292 7.431357905086293 -0.7045836178662881 0 2 1
773 258 2 0.4238 4.0752297939636835 2.839288620148279 0.7757181811203682 0 0 2
1164 388 2 0.4238 -1.545655370512887 6.531440520389372 0.41617432703684293 3 0 2
1343 448 2 0.4238 1.9452966426480829 3.0825383610997688 -0.2354602105111571 1 0 1
690 230 2 0.4238 1.2959235776821094 5.947234072976726 -0.5672174769007127 0 2 1
24 8 2 0.4238 3.2760385846467863 4.04522577590194 4.562078651820011 -1 -2 -1
158 53 2 0.4238 2.9562619083794837 8.539019025988422 1.1911480389061524 1 1 -1
925 309 4 -0.8476 3.3747169853194263 7.679631053693645 2.7459765219688523 0 1 1
926 309 2 0.4238 2.708695436457315 6.934044926113436 2.7232433501307973 0 1 1
711 237 2 0.4238 -2.0824311747680544 7.471504881717273 -1.3021584142048723 0 1 3
685 229 4 -0.8476 8.396660524113653 2.2878519983246255 1.0803629481180892 1 1 0
687 229 2 0.4238 7.858409998709443 2.5130770637706745 1.8924962883223537 1 1 0
754 252 4 -0.8476 4.710900298578644 5.869224591460015 -1.2391686870375318 0 2 1
756 252 2 0.4238 5.109356337685324 6.716494194661715 -0.8879320240800446 0 2 1
686 229 2 0.4238 9.32431929092518 2.646210736413036 1.1853808917719713 1 1 0
1101 367 2 0.4238 7.163367827804796 2.8988883543324335 22.554042998388624 0 1 -2
314 105 2 0.4238 -13.754974242097907 4.082977678424926 1.158588389996411 2 1 0
774 258 2 0.4238 5.008553012588169 2.2292872693928003 1.968795637020107 0 0 2
313 105 4 -0.8476 10.402493772518236 4.32276497434968 1.6774238060038036 1 1 0
315 105 2 0.4238 9.926609054470477 5.073983300817847 1.2200340630110524 1 1 0
755 252 2 0.4238 5.088301804850275 5.673571459115313 22.83371036005103 0 2 0
946 316 4 -0.8476 6.338900695136637 5.471408467111691 1.249296486119673 1 1 0
947 316 2 0.4238 6.485600015296301 4.511417644522305 1.487828104293892 1 1 0
948 316 2 0.4238 6.126623694540647 5.544035615332507 0.2747893249452854 1 1 0
1099 367 4 -0.8476 8.052543327889099 3.217231528614854 22.225371836141303 0 1 -2
1390 464 4 -0.8476 8.842360087912816 6.675262034296128 1.4084184587203556 2 0 3
1391 464 2 0.4238 8.694562530724435 7.664247441199248 1.4164804796262689 2 0 3
1392 464 2 0.4238 7.970326971555717 6.209134004911467 1.2591411868877935 2 0 3
1100 367 2 0.4238 8.104750729124637 4.2117677415720935 22.315772426475537 0 1 -2
382 128 4 -0.8476 9.278099886865316 7.991281737176622 22.69542187574513 1 1 -2
383 128 2 0.4238 10.120589421159028 7.523737937836536 -2.0149927936506686 1 1 -1
999 333 2 0.4238 10.09952475751621 4.161368239106871 3.5287234966497416 -1 0 3
780 260 2 0.4238 5.4462395748720365 3.3346872030069665 3.7197480656116917 0 -1 0
778 260 4 -0.8476 6.238667941705931 2.842467855665181 3.3595015416089655 0 -1 0
779 260 2 0.4238 6.738332049977685 2.4173481000765147 4.114226100021378 0 -1 0
662 221 2 0.4238 5.594579797807189 1.9818377767817863 21.55585734822115 0 -1 -2
264 88 2 0.4238 -11.682979499726736 7.80115738683046 0.5167513347901235 0 -1 2
1272 424 2 0.4238 -13.439488436873843 8.217217980488455 1.736681825139888 -1 0 -1
179 60 2 0.4238 -13.59094321076929 9.84002045637195 2.611743878807104 2 0 0
50 17 2 0.4238 10.676013023457882 13.353587081855682 0.13230687874539332 -2 0 0
51 17 2 0.4238 -13.811969122398576 11.866560050404072 0.5962427389732249 -1 0 0
165 55 2 0.4238 -10.76050154840814 13.380911897668092 -1.2272368676063805 3 -1 0
262 88 4 -0.8476 -10.70362380659646 8.001687759612242 0.49125291959009143 0 -1 2
263 88 2 0.4238 -10.468274514847078 8.61074823324277 1.2486539025591374 0 -1 2
265 89 4 -0.8476 -10.212078648376432 9.798552619452368 2.4006924369944667 1 1 1
266 89 2 0.4238 -9.64921974143295 9.465028720644508 3.156967402985847 1 1 1
267 89 2 0.4238 -9.646938415104609 10.339771734350657 1.7780379682772671 1 1 1
826 276 4 -0.8476 -12.667044076064055 11.022734892427586 1.952436391292239 1 0 1
827 276 2 0.4238 -11.729234090736892 10.68256893127239 1.8831581299138642 1 0 1
828 276 2 0.4238 -12.667093571142876 11.907565151099176 2.418350068089253 1 0 1
1420 474 4 -0.8476 -9.056542077558285 8.118877026899698 22.884090356716346 0 0 0
1422 474 2 0.4238 -9.481100862913861 8.061533568997916 -1.1903510163109792 0 0 1
1326 442 2 0.4238 -12.998289946705308 9.131702504129308 -0.4996257204963283 -1 3 2
1324 442 4 -0.8476 -12.990053356242244 9.244531769225045 -1.4932061612947158 -1 3 2
337 113 4 -0.8476 -8.516249350358096 11.59400417760113 1.1853739267959864 1 1 1
338 113 2 0.4238 -8.372670876293288 11.58937441721799 0.1957457109555067 1 1 1
339 113 2 0.4238 -7.737834664355353 12.034061824226491 1.633056677908711 1 1 1
700 234 4 -0.8476 -10.1877126520457 13.808543750151927 0.8922977812604411 1 0 2
701 234 2 0.4238 -9.656441909632795 12.979970916020118 1.0689884450732705 1 0 2
702 234 2 0.4238 -10.832316104386878 13.957415417533456 1.6421806775432688 1 0 2
178 60 4 -0.8476 10.739876712027215 9.167843411099074 2.9713333263038604 1 0 0
49 17 4 -0.8476 10.708618235120866 12.387631253019455 -0.12433822016957681 -2 0 0
814 272 4 -0.8476 -11.966769926847396 13.500696643950233 3.1072008253300067 2 0 1
213 71 2 0.4238 -7.4884205302615685 12.83625148645233 3.145189441370297 2 -1 0
816 272 2 0.4238 -12.57029530049279 14.000468437919546 3.728478952181311 2 0 1
815 272 2 0.4238 -11.06803313803966 13.391241577263262 3.531809840219841 2 0 1
433 145 4 -0.8476 -2.872735086035793 8.912958926489825 2.327642378530116 2 1 -1
434 145 2 0.4238 -3.244470957706965 9.817764492664145 2.119939569450326 2 1 -1
435 145 2 0.4238 -3.504721940340078 8.210023766029979 2.001335124658753 2 1 -1
1305 435 2 0.4238 -7.075197902357822 11.041903004299211 -1.135486648368804 1 0 2
206 69 2 0.4238 -4.913812683410069 10.426862047238235 3.760232672590698 1 0 -2
289 97 4 -0.8476 -5.755064643742552 10.073684105435639 -0.8956811885319464 1 1 -1
290 97 2 0.4238 -5.84108139574823 9.374321991940073 -0.18610786018365777 1 1 -1
291 97 2 0.4238 -5.660631291205312 9.632965770489141 -1.7883463772858927 1 1 -1
328 110 4 -0.8476 -1.3668880189535462 12.554877808445521 2.1356665557742804 1 -1 -1
329 110 2 0.4238 -1.9965481511911496 12.569603077480384 1.3589353006294707 1 -1 -1
568 190 4 -0.8476 -4.280152504508298 11.146274314999493 2.410774681325621 0 1 0
569 190 2 0.4238 -4.939963124681032 11.789738822637375 2.7988513693086654 0 1 0
570 190 2 0.4238 -3.98802449233075 11.47047168418178 1.5110205854875274 0 1 0
733 245 4 -0.8476 -3.5281200189484236 11.799776191127412 -0.481818568393982 2 1 1
734 245 2 0.4238 -4.2399706839695765 11.100160002635567 -0.5435109333754093 2 1 1
735 245 2 0.4238 -3.6230962642066284 12.440051845580728 -1.2440696645822502 2 1 1
582 194 2 0.4238 -1.9080291155399642 11.359352716682297 -0.6710724679405986 1 0 2
446 149 2 0.4238 -2.2292570557707427 12.667330581665807 4.083714650443223 2 1 -1
211 71 4 -0.8476 -6.665651200435204 12.979415816537298 2.5951397139921544 2 -1 0
212 71 2 0.4238 -6.506193209909749 13.960227324792955 2.4829700190626918 2 -1 0
207 69 2 0.4238 -5.633969993855795 8.972488618211889 3.94133765093542 1 0 -2
157 53 4 -0.8476 2.3256805604234803 8.940841386072384 0.5271405449870418 1 1 -1
709 237 4 -0.8476 -1.6982083008134006 8.352352608356302 -1.5787109583467605 0 1 3
580 194 4 -0.8476 -1.0693366838636733 10.890273636302389 -0.9477664976671408 1 0 2
581 194 2 0.4238 -1.3031917160053659 10.045602372375406 -1.429266658570557 1 0 2
666 222 2 0.4238 -0.4939430361112382 9.93232704561549 0.3840185270943511 1 -2 0
330 110 2 0.4238 -0.4761144944449194 12.90780535664453 1.8493715151059833 1 -1 -1
664 222 4 -0.8476 -0.14786277788112537 9.626137998571174 1.2708545134093696 1 -2 0
159 53 2 0.4238 1.4267198221572441 9.05736177608644 0.9493875864177 1 1 -1
1383 461 2 0.4238 4.1990806689439335 8.762204654563552 -1.536394498238549 1 1 2
665 222 2 0.4238 -0.7973847046632473 9.879639703352069 1.9876937631994294 1 -2 0
1412 471 2 0.4238 1.6338385578264876 12.968080813890833 3.196147710238746 -1 0 0
373 125 4 -0.8476 1.9103850714571358 11.67014418200828 -0.47408060936007784 0 1 1
374 125 2 0.4238 0.9603460834122571 11.816227011736732 -0.7499170799913113 0 1 1
375 125 2 0.4238 2.078872826896005 10.690513867369734 -0.3648267811302521 0 1 1
550 184 4 -0.8476 4.468960796274286 11.457334061214468 1.346494214848134 0 -1 0
551 184 2 0.4238 4.990282194599473 10.606780509973843 1.2773334609529807 0 -1 0
552 184 2 0.4238 3.6331525758779444 11.381138565582948 0.8027854900783091 0 -1 0
927 309 2 0.4238 2.933454751631952 8.510517039819756 3.0849696134326714 0 1 1
1337 446 2 0.4238 3.7838379291938873 12.089710609327948 -1.3942918194824794 1 0 0
1348 450 4 -0.8476 1.9888654388680043 9.863062049720346 3.7668853002929534 0 0 0
1349 450 2 0.4238 1.2383867158919764 9.278260262297756 4.074764385516223 0 0 0
1350 450 2 0.4238 1.6994713041866847 10.819824056002235 3.7961793100365444 0 0 0
857 286 2 0.4238 4.0858761127198235 13.031746076422344 2.310107439051857 3 0 1
1336 446 4 -0.8476 4.294111882169454 12.862051020202024 -1.7725918680861934 1 0 0
856 286 4 -0.8476 4.253247015485948 14.008289287711008 2.44557037752485 3 0 1
133 45 4 -0.8476 1.0976654499597969 13.414685508171539 1.5781968308602679 1 0 0
134 45 2 0.4238 1.4456790509585742 14.275982439446594 1.207988365448857 1 0 0
135 45 2 0.4238 1.4458297285747603 12.652459009653912 1.0324930754182184 1 0 0
710 237 2 0.4238 -0.7770409866189429 8.214661956827777 -1.942706156446246 0 1 3
1381 461 4 -0.8476 3.6525429931417 9.35103464620881 22.846167048822796 1 1 1
384 128 2 0.4238 9.141649037397007 8.792094648151556 -1.6994380022563238 1 1 -1
973 325 4 -0.8476 5.649930376295017 8.338331830211176 -0.8528042063294706 -1 1 1
1312 438 4 -0.8476 5.7701910067196245 9.158267066474371 2.0269424927340625 1 1 1
1314 438 2 0.4238 5.254435997263208 8.32738025296713 1.8180789908860824 1 1 1
1313 438 2 0.4238 5.48827790525303 9.51002783176423 2.9195731741031206 1 1 1
367 123 4 -0.8476 8.900709297091685 10.51120153896325 -0.9871019748146705 0 1 1
368 123 2 0.4238 9.49895511981646 11.257146361405445 -0.6944078030108364 0 1 1
369 123 2 0.4238 8.243578779934335 10.854664250991599 -1.658081336862596 0 1 1
865 289 4 -0.8476 6.920150490794964 14.233057104768465 -0.5879114521684687 0 -1 1
866 289 2 0.4238 7.11335269977891 13.933594884424172 0.34643080512093616 0 -1 1
867 289 2 0.4238 6.1126529479709495 13.753495129449325 -0.931376307179288 0 -1 1
892 298 4 -0.8476 8.651476744376316 9.315654420830072 1.3739359741872363 -1 -1 0
893 298 2 0.4238 8.774532311046718 9.66293242896747 0.4442825522966603 -1 -1 0
894 298 2 0.4238 7.700115658978291 9.443422531401957 1.6542706494045685 -1 -1 0
975 325 2 0.4238 5.857407692284852 8.711713884338918 0.05137452510282024 -1 1 1
1091 364 2 0.4238 9.154790457435535 15.717494853174276 0.5419603243790393 1 1 1
974 325 2 0.4238 6.307939503039157 8.691061055510225 -1.5180908313202968 -1 1 1
1221 407 2 0.4238 6.697069341088155 12.37234988696924 1.775839331314482 2 -1 0
1219 407 4 -0.8476 7.305200363695503 13.156223599419087 1.9012138097319686 2 -1 0
1220 407 2 0.4238 8.20592837872388 12.835749383869498 2.1944465352677724 2 -1 0
180 60 2 0.4238 9.85768484534081 9.276246405785919 2.5130904242934085 1 0 0
950 317 2 0.4238 9.049344229049828 11.986634361371106 3.9311807304885096 1 1 0
949 317 4 -0.8476 9.517500589700466 12.410368016438358 3.155757708977724 1 1 0
951 317 2 0.4238 9.82490960179321 13.326724867768196 3.4122551027212085 1 1 0
355 119 4 -0.8476 6.948693049281117 9.763612919985778 22.25111842279972 1 3 -1
356 119 2 0.4238 6.326240131343442 10.463079585670464 21.89997820247708 1 3 -1
73 25 4 -0.8476 -10.010268061684155 20.01020889261499 2.9986335083279556 0 -1 1
75 25 2 0.4238 -9.423031994938043 19.843202739974316 2.206634193742179 0 -1 1
532 178 4 -0.8476 -9.03943054368502 19.41796863794665 0.5069147165741229 1 0 0
534 178 2 0.4238 -8.87448446918281 18.432441178925338 0.4678140419701947 1 0 0
533 178 2 0.4238 -8.272412199607365 19.901293449989442 0.08491778890855811 1 0 0
74 25 2 0.4238 -10.101045491454984 19.167822869574415 3.5298071395389297 0 -1 1
82 28 4 -0.8476 -9.51359106832759 16.75067590170625 3.2481743457066 0 0 1
83 28 2 0.4238 -8.944660258128774 16.790649185784147 2.426760897431086 0 0 1
667 223 4 -0.8476 -8.569003608996118 16.125810975412385 0.5557619080540466 2 2 0
668 223 2 0.4238 -7.8924978102877645 15.955832852980036 -0.16079066700415443 2 2 0
669 223 2 0.4238 -8.993229379329971 15.261351968330661 0.8254715597403279 2 2 0
153 51 2 0.4238 -10.150657775940331 16.40167391871751 -0.2511263379243697 2 0 -1
273 91 2 0.4238 -11.253315628487517 16.238187272977115 2.186082814040688 1 -1 0
151 51 4 -0.8476 -10.816883470068113 16.824809689495183 -0.8652115861956643 2 0 -1
84 28 2 0.4238 -9.334551994801009 15.896517679622136 3.7363945294774403 0 0 1
296 99 2 0.4238 -10.542833417169588 20.19849934335462 -0.4388164215821457 2 1 0
271 91 4 -0.8476 -12.225841814564967 16.314622068673582 1.9661938688330964 1 -1 0
272 91 2 0.4238 -12.764755832452083 15.861752144900748 2.6764623377040664 1 -1 0
250 84 4 -0.8476 -3.858490642925586 14.738239623407827 0.4886046339972502 2 0 0
251 84 2 0.4238 -4.62412193244868 15.075943918230767 1.0361131931658754 2 0 0
252 84 2 0.4238 -4.187446673145125 14.476500044816424 -0.4187437716318974 2 0 0
1333 445 4 -0.8476 -6.671403303646347 15.37581139932476 -0.9157645668409337 -1 0 1
1509 503 2 0.4238 -2.8075119871370697 16.54051432697604 3.725968864045543 0 1 0
9 3 2 0.4238 -1.3960197302421127 14.61891506243721 2.991452730961808 2 1 -1
7 3 4 -0.8476 -2.1290287161547696 15.29695521077969 2.937048681075987 2 1 -1
8 3 2 0.4238 -2.679353241881439 15.127990457313524 2.119372338219984 2 1 -1
30 10 2 0.4238 -5.1890976720976845 18.397356559055968 3.9340354048397597 -1 -2 0
1251 417 2 0.4238 -0.7556989893604703 19.598503346331658 2.5333877806655587 1 -1 1
1335 445 2 0.4238 -5.88968638432929 15.763971082692398 -1.4038740581983562 -1 0 1
1525 509 4 -0.8476 -2.3731906076668 19.8942637211369 0.2961508385962711 2 0 2
1526 509 2 0.4238 -1.5652946563958117 20.28346313765079 0.738676954555791 2 0 2
993 331 2 0.4238 -5.986933750344821 16.52693600303743 2.8389420500107874 0 1 1
991 331 4 -0.8476 -6.142859036857184 15.785936642061591 2.1857894148145904 0 1 1
28 10 4 -0.8476 -5.859498270398549 18.400640854053716 3.1920432182476812 -1 -2 0
1293 431 2 0.4238 -2.2265943635808534 14.472777415276035 -0.24985684282030693 0 0 1
29 10 2 0.4238 -5.530395987826437 18.982167122229722 2.448054592200228 -1 -2 0
318 106 2 0.4238 -4.525678479827795 15.790303774667018 5.164338075158215 0 0 -1
1507 503 4 -0.8476 -3.191669834913373 17.339352650532483 4.188873007057426 0 1 0
1508 503 2 0.4238 -2.6246529383156387 18.14041775422052 3.9970745056904664 0 1 0
1198 400 4 -0.8476 -3.998470774977108 13.751118204462255 22.58500837550098 -1 2 0
1469 490 2 0.4238 -2.191676000136528 18.580401981733317 -1.0651928647698414 0 -1 1
1432 478 4 -0.8476 -0.031042515705945253 -4.381064251370795 1.2754872355913494 1 -3 2
1250 417 2 0.4238 -0.4700883030913619 18.10178687374934 3.1206642277513557 1 -1 1
1249 417 4 -0.8476 -1.1281955165755047 18.853976143624546 3.087397694735945 1 -1 1
806 269 2 0.4238 3.4757316532985882 15.604484290798261 -0.3938733801272035 1 0 0
807 269 2 0.4238 4.149906991161274 14.556920883078005 -1.4496789043739229 1 0 0
805 269 4 -0.8476 3.83733275927988 15.49793430664728 -1.3200979166647078 1 0 0
1291 431 4 -0.8476 -1.2463463208436019 14.594938227463038 -0.40539040710150587 0 0 1
940 314 4 -0.8476 2.716587655595311 15.644814599061132 1.2054857230828548 1 -1 1
1292 431 2 0.4238 -0.9522466471613182 15.465567911060527 -0.011043498609145875 0 0 1
442 148 4 -0.8476 4.841788643995851 19.667543796648594 0.8352442353632834 1 0 1
443 148 2 0.4238 4.82095877787958 19.374400328069896 -0.12059775294143293 1 0 1
541 181 4 -0.8476 1.468612744269122 17.27277482483759 3.525774665939409 2 0 1
543 181 2 0.4238 1.9634565207245942 18.084655265356325 3.2159684111905937 2 0 1
712 238 4 -0.8476 -0.16341474609982673 16.779078080991816 0.2709416990321216 2 -3 1
713 238 2 0.4238 0.8268276695422008 16.685472021074332 0.16770384860698767 2 -3 1